/*--------------------------------*- C++ -*----------------------------------*\
| =========                 |                                                 |
| \\      /  F ield         | OpenFOAM: The Open Source CFD Toolbox           |
|  \\    /   O peration     | Version:  2.3.1                                 |
|   \\  /    A nd           | Web:      www.OpenFOAM.org                      |
|    \\/     M anipulation  |                                                 |
\*---------------------------------------------------------------------------*/
FoamFile
{
    version     2.0;
    format      ascii;
    class       volScalarField;
    location    "0";
    object      alpha;
}
// * * * * * * * * * * * * * * * * * * * * * * * * * * * * * * * * * * * * * //

dimensions      [0 0 0 0 0 0 0];

internalField   nonuniform List<scalar> 
1000
(
0.61
0.61
0.61
0.61
0.61
0.61
0.61
0.61
0.61
0.61
0.61
0.61
0.61
0.61
0.61
0.61
0.61
0.61
0.61
0.61
0.61
0.61
0.61
0.61
0.61
0.61
0.61
0.61
0.61
0.61
0.61
0.61
0.61
0.61
0.61
0.61
0.61
0.61
0.61
0.61
0.61
0.61
0.61
0.61
0.609999
0.609999
0.609999
0.609999
0.609998
0.609998
0.609997
0.609997
0.609996
0.609994
0.609993
0.609991
0.609988
0.609985
0.609981
0.609975
0.609968
0.609959
0.609947
0.609933
0.609913
0.609889
0.609857
0.609817
0.609765
0.609699
0.609613
0.609504
0.609363
0.609183
0.608952
0.608655
0.608275
0.607788
0.607164
0.606365
0.605342
0.604034
0.602364
0.600234
0.597522
0.594076
0.589712
0.584203
0.577282
0.568635
0.557909
0.544721
0.528681
0.509427
0.486678
0.460295
0.430351
0.397188
0.361438
0.324007
0.285993
0.248562
0.212812
0.179649
0.149705
0.123322
0.100573
0.0813194
0.0652792
0.0520912
0.0413651
0.0327182
0.0257968
0.0202881
0.0159237
0.0124783
0.00976612
0.00763591
0.00596573
0.00465803
0.00363526
0.00283601
0.00221184
0.00172466
0.00134454
0.00104806
0.000816865
0.000636618
0.000496111
0.000386596
0.000301244
0.000234728
0.000182895
0.000142505
0.000111034
8.65111e-05
6.7404e-05
5.25165e-05
4.09171e-05
3.18795e-05
2.4838e-05
1.93517e-05
1.50773e-05
1.1747e-05
9.15225e-06
7.13065e-06
5.55559e-06
4.32844e-06
3.37235e-06
2.62744e-06
2.04707e-06
1.5949e-06
1.24261e-06
9.68132e-07
7.54283e-07
5.87672e-07
4.57862e-07
3.56726e-07
2.7793e-07
2.16539e-07
1.68708e-07
1.31442e-07
1.02408e-07
7.97877e-08
6.21636e-08
4.84324e-08
3.77343e-08
2.93993e-08
2.29053e-08
1.78458e-08
1.39039e-08
1.08327e-08
8.43989e-09
6.57562e-09
5.12315e-09
3.99151e-09
3.10983e-09
2.42291e-09
1.88772e-09
1.47075e-09
1.14588e-09
8.92766e-10
6.95565e-10
5.41923e-10
4.22219e-10
3.28956e-10
2.56294e-10
1.99682e-10
1.55575e-10
1.2121e-10
9.44362e-11
7.35764e-11
5.73243e-11
4.46621e-11
3.47968e-11
2.71106e-11
2.11222e-11
1.64566e-11
1.28215e-11
9.9894e-12
7.78286e-12
6.06373e-12
4.72433e-12
3.68078e-12
2.86776e-12
2.2343e-12
1.74077e-12
1.35627e-12
1.05666e-12
8.23282e-13
6.4141e-13
4.99732e-13
3.89343e-13
3.03334e-13
2.36355e-13
1.8414e-13
1.43472e-13
1.11778e-13
8.70926e-14
6.78591e-14
5.28583e-14
4.1176e-14
3.2101e-14
2.499e-14
1.94705e-14
1.51701e-14
1.18178e-14
9.21041e-15
7.1787e-15
5.5872e-15
4.36817e-15
3.38618e-15
2.64122e-15
2.06557e-15
1.5915e-15
1.25289e-15
9.81992e-16
7.4496e-16
5.75651e-16
4.74065e-16
3.7248e-16
2.70894e-16
2.03171e-16
1.69309e-16
1.35447e-16
1.01585e-16
6.77236e-17
6.77236e-17
3.38618e-17
3.38618e-17
3.38618e-17
3.38618e-17
3.38618e-17
0
0
0
0
0
0
0
0
0
0
0
0
0
0
0
0
0
0
0
0
0
0
0
0
0
0
0
0
0
0
0
0
0
0
0
0
0
0
0
0
0
0
0
0
0
0
0
0
0
0
0
0
0
0
0
0
0
0
0
0
0
0
0
0
0
0
0
0
0
0
0
0
0
0
0
0
0
0
0
0
0
0
0
0
0
0
0
0
0
0
0
0
0
0
0
0
0
0
0
0
0
0
0
0
0
0
0
0
0
0
0
0
0
0
0
0
0
0
0
0
0
0
0
0
0
0
0
0
0
0
0
0
0
0
0
0
0
0
0
0
0
0
0
0
0
0
0
0
0
0
0
0
0
0
0
0
0
0
0
0
0
0
0
0
0
0
0
0
0
0
0
0
0
0
0
0
0
0
0
0
0
0
0
0
0
0
0
0
0
0
0
0
0
0
0
0
0
0
0
0
0
0
0
0
0
0
0
0
0
0
0
0
0
0
0
0
0
0
0
0
0
0
0
0
0
0
0
0
0
0
0
0
0
0
0
0
0
0
0
0
0
0
0
0
0
0
0
0
0
0
0
0
0
0
0
0
0
0
0
0
0
0
0
0
0
0
0
0
0
0
0
0
0
0
0
0
0
0
0
0
0
0
0
0
0
0
0
0
0
0
0
0
0
0
0
0
0
0
0
0
0
0
0
0
0
0
0
0
0
0
0
0
0
0
0
0
0
0
0
0
0
0
0
0
0
0
0
0
0
0
0
0
0
0
0
0
0
0
0
0
0
0
0
0
0
0
0
0
0
0
0
0
0
0
0
0
0
0
0
0
0
0
0
0
0
0
0
0
0
0
0
0
0
0
0
0
0
0
0
0
0
0
0
0
0
0
0
0
0
0
0
0
0
0
0
0
0
0
0
0
0
0
0
0
0
0
0
0
0
0
0
0
0
0
0
0
0
0
0
0
0
0
0
0
0
0
0
0
0
0
0
0
0
0
0
0
0
0
0
0
0
0
0
0
0
0
0
0
0
0
0
0
0
0
0
0
0
0
0
0
0
0
0
0
0
0
0
0
0
0
0
0
0
0
0
0
0
0
0
0
0
0
0
0
0
0
0
0
0
0
0
0
0
0
0
0
0
0
0
0
0
0
0
0
0
0
0
0
0
0
0
0
0
0
0
0
0
0
0
0
0
0
0
0
0
0
0
0
0
0
0
0
0
0
0
0
0
0
0
0
0
0
0
0
0
0
0
0
0
0
0
0
0
0
0
0
0
0
0
0
0
0
0
0
0
0
0
0
0
0
0
0
0
0
0
0
0
0
0
0
0
0
0
0
0
0
0
0
0
0
0
0
0
0
0
0
0
0
0
0
0
0
0
0
0
0
0
0
0
0
0
0
0
0
0
0
0
0
0
0
0
0
0
0
0
0
0
0
0
0
0
0
0
0
0
0
0
0
0
0
0
0
0
0
0
0
0
0
0
0
0
0
0
0
0
0
0
0
0
0
0
0
0
0
0
0
0
0
0
0
0
0
0
0
0
0
0
0
0
0
0
0
0
0
0
0
0
0
0
0
0
0
0
0
0
0
0
0
0
0
0
0
0
0
0
0
0
0
0
0
0
0
0
0
0
0
0
0
0
0
0
0
0
0
0
0
0
0
0
0
0
0
0
0
0
0
0
0
0
0
0
0
0
0
0
0
0
)
;

boundaryField
{
    inandouthalf11
    {
        type            cyclic;
    }
    inandouthalf12
    {
        type            cyclic;
    }
    inandouthalf21
    {
        type            cyclic;
    }
    inandouthalf22
    {
        type            cyclic;
    }
    inandouthalf31
    {
        type            cyclic;
    }
    inandouthalf32
    {
        type            cyclic;
    }
    inandouthalf41
    {
        type            cyclic;
    }
    inandouthalf42
    {
        type            cyclic;
    }
    top
    {
        type            symmetryPlane;
    }
    walls
    {
        type            zeroGradient;
    }
    frontAndBackPlanes
    {
        type            empty;
    }
}


// ************************************************************************* //
