/*--------------------------------*- C++ -*----------------------------------*\
| =========                 |                                                 |
| \\      /  F ield         | OpenFOAM: The Open Source CFD Toolbox           |
|  \\    /   O peration     | Version:  2.3.1                                 |
|   \\  /    A nd           | Web:      www.OpenFOAM.org                      |
|    \\/     M anipulation  |                                                 |
\*---------------------------------------------------------------------------*/
FoamFile
{
    version     2.0;
    format      ascii;
    class       volScalarField;
    location    "0";
    object      alpha;
}
// * * * * * * * * * * * * * * * * * * * * * * * * * * * * * * * * * * * * * //

dimensions      [0 0 0 0 0 0 0];

internalField   nonuniform List<scalar> 
1200
(
0.61
0.61
0.61
0.61
0.61
0.61
0.61
0.61
0.61
0.61
0.61
0.61
0.61
0.61
0.61
0.61
0.61
0.61
0.61
0.61
0.61
0.61
0.61
0.61
0.61
0.61
0.61
0.61
0.61
0.61
0.61
0.61
0.61
0.61
0.61
0.61
0.61
0.61
0.61
0.61
0.61
0.61
0.61
0.61
0.61
0.61
0.61
0.61
0.61
0.61
0.61
0.61
0.61
0.61
0.61
0.61
0.61
0.61
0.61
0.61
0.61
0.61
0.61
0.61
0.61
0.61
0.61
0.61
0.61
0.61
0.61
0.61
0.61
0.61
0.61
0.61
0.61
0.61
0.61
0.61
0.61
0.61
0.61
0.61
0.61
0.61
0.61
0.61
0.61
0.61
0.61
0.61
0.61
0.61
0.61
0.61
0.61
0.61
0.61
0.61
0.61
0.61
0.61
0.61
0.61
0.61
0.61
0.61
0.61
0.61
0.61
0.61
0.61
0.61
0.61
0.61
0.61
0.61
0.61
0.61
0.61
0.61
0.61
0.61
0.61
0.61
0.61
0.61
0.61
0.61
0.61
0.61
0.61
0.61
0.61
0.61
0.61
0.61
0.61
0.61
0.61
0.61
0.61
0.61
0.61
0.61
0.61
0.61
0.61
0.61
0.61
0.61
0.61
0.61
0.61
0.61
0.61
0.61
0.61
0.61
0.61
0.61
0.61
0.61
0.61
0.61
0.61
0.61
0.61
0.61
0.61
0.61
0.61
0.61
0.61
0.61
0.61
0.61
0.61
0.61
0.61
0.61
0.61
0.61
0.61
0.61
0.61
0.61
0.61
0.61
0.61
0.61
0.61
0.61
0.61
0.61
0.61
0.61
0.61
0.61
0.61
0.61
0.61
0.61
0.61
0.61
0.61
0.61
0.61
0.61
0.61
0.61
0.61
0.61
0.61
0.61
0.61
0.61
0.61
0.61
0.61
0.61
0.61
0.61
0.61
0.61
0.61
0.61
0.61
0.61
0.61
0.61
0.61
0.61
0.61
0.61
0.61
0.61
0.61
0.61
0.61
0.61
0.61
0.61
0.61
0.61
0.61
0.61
0.61
0.61
0.61
0.61
0.61
0.61
0.61
0.61
0.61
0.61
0.61
0.61
0.61
0.61
0.61
0.61
0.61
0.61
0.61
0.61
0.61
0.61
0.61
0.61
0.61
0.61
0.61
0.61
0.61
0.61
0.61
0.61
0.61
0.61
0.61
0.61
0.61
0.61
0.61
0.61
0.61
0.61
0.61
0.61
0.61
0.61
0.61
0.61
0.61
0.61
0.61
0.61
0.61
0.61
0.61
0.61
0.61
0.61
0.61
0.61
0.61
0.61
0.61
0.61
0.61
0.61
0.61
0.61
0.61
0.61
0.61
0.61
0.61
0.61
0.61
0.61
0.61
0.61
0.61
0.61
0.61
0.61
0.61
0.61
0.61
0.61
0.609999
0.609999
0.609999
0.609999
0.609999
0.609999
0.609999
0.609999
0.609999
0.609999
0.609999
0.609998
0.609998
0.609998
0.609998
0.609998
0.609998
0.609997
0.609997
0.609997
0.609996
0.609996
0.609996
0.609995
0.609995
0.609994
0.609994
0.609993
0.609992
0.609992
0.609991
0.60999
0.609989
0.609988
0.609986
0.609985
0.609983
0.609982
0.60998
0.609978
0.609976
0.609973
0.60997
0.609968
0.609964
0.609961
0.609957
0.609952
0.609947
0.609942
0.609936
0.60993
0.609923
0.609915
0.609907
0.609897
0.609887
0.609875
0.609863
0.609849
0.609834
0.609817
0.609799
0.609778
0.609756
0.609732
0.609704
0.609675
0.609642
0.609606
0.609566
0.609523
0.609474
0.609422
0.609363
0.609299
0.609229
0.609151
0.609066
0.608972
0.608868
0.608755
0.608629
0.608492
0.60834
0.608173
0.60799
0.607788
0.607566
0.607322
0.607054
0.606758
0.606433
0.606076
0.605684
0.605252
0.604778
0.604257
0.603684
0.603055
0.602364
0.601605
0.600772
0.599858
0.598855
0.597754
0.596548
0.595225
0.593776
0.592189
0.590452
0.588551
0.586473
0.584203
0.581724
0.57902
0.576072
0.572862
0.569369
0.565573
0.561453
0.556987
0.552152
0.546926
0.541286
0.535212
0.528681
0.521673
0.514172
0.50616
0.497625
0.488556
0.478948
0.4688
0.458115
0.446903
0.43518
0.422966
0.41029
0.397188
0.3837
0.369874
0.355763
0.341425
0.326922
0.312319
0.297681
0.283078
0.268575
0.254237
0.240126
0.2263
0.212812
0.19971
0.187034
0.17482
0.163097
0.151885
0.1412
0.131052
0.121444
0.112375
0.10384
0.0958282
0.0883266
0.0813194
0.0747884
0.0687137
0.0630743
0.0578482
0.0530132
0.0485468
0.0444267
0.0406309
0.0371381
0.0339277
0.0309799
0.0282755
0.0257968
0.0235265
0.0214487
0.0195483
0.0178112
0.0162242
0.014775
0.0134524
0.0122458
0.0111453
0.0101421
0.00922776
0.00839471
0.00763591
0.00694491
0.00631578
0.0057431
0.0052219
0.00474763
0.00431613
0.00392359
0.00356654
0.00324181
0.0029465
0.00267797
0.00243382
0.00221184
0.00201005
0.00182661
0.00165986
0.0015083
0.00137055
0.00124535
0.00113157
0.00102816
0.000934192
0.000848798
0.000771201
0.00070069
0.000636618
0.0005784
0.000525501
0.000477437
0.000433765
0.000394086
0.000358034
0.000325278
0.000295518
0.000268479
0.000243914
0.000221595
0.000201318
0.000182895
0.000166158
0.000150953
0.000137138
0.000124588
0.000113186
0.000102827
9.34159e-05
8.48661e-05
7.70988e-05
7.00423e-05
6.36316e-05
5.78076e-05
5.25165e-05
4.77098e-05
4.33429e-05
3.93757e-05
3.57716e-05
3.24974e-05
2.95229e-05
2.68206e-05
2.43656e-05
2.21354e-05
2.01093e-05
1.82686e-05
1.65964e-05
1.50773e-05
1.36972e-05
1.24434e-05
1.13044e-05
1.02697e-05
9.32966e-06
8.47568e-06
7.69986e-06
6.99505e-06
6.35476e-06
5.77307e-06
5.24463e-06
4.76457e-06
4.32844e-06
3.93223e-06
3.5723e-06
3.2453e-06
2.94824e-06
2.67837e-06
2.43321e-06
2.21048e-06
2.00814e-06
1.82433e-06
1.65734e-06
1.50563e-06
1.36781e-06
1.24261e-06
1.12886e-06
1.02553e-06
9.3166e-07
8.4638e-07
7.68906e-07
6.98523e-07
6.34583e-07
5.76496e-07
5.23726e-07
4.75786e-07
4.32235e-07
3.9267e-07
3.56726e-07
3.24073e-07
2.94409e-07
2.6746e-07
2.42978e-07
2.20736e-07
2.00531e-07
1.82175e-07
1.655e-07
1.50351e-07
1.36588e-07
1.24085e-07
1.12727e-07
1.02408e-07
9.30344e-08
8.45184e-08
7.67819e-08
6.97536e-08
6.33687e-08
5.75681e-08
5.22986e-08
4.75114e-08
4.31624e-08
3.92115e-08
3.56222e-08
3.23615e-08
2.93993e-08
2.67082e-08
2.42634e-08
2.20424e-08
2.00248e-08
1.81918e-08
1.65266e-08
1.50138e-08
1.36395e-08
1.2391e-08
1.12568e-08
1.02264e-08
9.29029e-09
8.43989e-09
7.66734e-09
6.9655e-09
6.32791e-09
5.74868e-09
5.22246e-09
4.74442e-09
4.31014e-09
3.9156e-09
3.55719e-09
3.23157e-09
2.93577e-09
2.66704e-09
2.42291e-09
2.20113e-09
1.99964e-09
1.81661e-09
1.65032e-09
1.49926e-09
1.36202e-09
1.23735e-09
1.12409e-09
1.02119e-09
9.27715e-10
8.42796e-10
7.6565e-10
6.95565e-10
6.31896e-10
5.74055e-10
5.21508e-10
4.73771e-10
4.30404e-10
3.91007e-10
3.55216e-10
3.22701e-10
2.93162e-10
2.66327e-10
2.41948e-10
2.19801e-10
1.99682e-10
1.81404e-10
1.64799e-10
1.49714e-10
1.3601e-10
1.2356e-10
1.1225e-10
1.01975e-10
9.26403e-11
8.41604e-11
7.64567e-11
6.94582e-11
6.31002e-11
5.73243e-11
5.20771e-11
4.73102e-11
4.29796e-11
3.90454e-11
3.54713e-11
3.22244e-11
2.92747e-11
2.6595e-11
2.41606e-11
2.19491e-11
1.99399e-11
1.81147e-11
1.64566e-11
1.49502e-11
1.35817e-11
1.23385e-11
1.12091e-11
1.01831e-11
9.25094e-12
8.40413e-12
7.63485e-12
6.93598e-12
6.30111e-12
5.72434e-12
5.20036e-12
4.72433e-12
4.29188e-12
3.89902e-12
3.54211e-12
3.21789e-12
2.92332e-12
2.65575e-12
2.41265e-12
2.19181e-12
1.99118e-12
1.8089e-12
1.64335e-12
1.4929e-12
1.35627e-12
1.2321e-12
1.11934e-12
1.01687e-12
9.23784e-13
8.39231e-13
7.62398e-13
6.92609e-13
6.2922e-13
5.71621e-13
5.19305e-13
4.71763e-13
4.28589e-13
3.89343e-13
3.5372e-13
3.21349e-13
2.91923e-13
2.65206e-13
2.40927e-13
2.18883e-13
1.98837e-13
1.80619e-13
1.64094e-13
1.49094e-13
1.35447e-13
1.2302e-13
1.11778e-13
1.01552e-13
9.22395e-14
8.3808e-14
7.61213e-14
6.91797e-14
6.28475e-14
5.7091e-14
5.18424e-14
4.71018e-14
4.28013e-14
3.88733e-14
3.53179e-14
3.2101e-14
2.9155e-14
2.64799e-14
2.40419e-14
2.18409e-14
1.9843e-14
1.80483e-14
1.63891e-14
1.48992e-14
1.35109e-14
1.22918e-14
1.11744e-14
1.01247e-14
9.21041e-15
8.36387e-15
7.61891e-15
6.90781e-15
6.26443e-15
5.68878e-15
5.18086e-15
4.70679e-15
4.26659e-15
3.89411e-15
3.52163e-15
3.21687e-15
2.91211e-15
2.64122e-15
2.40419e-15
2.16716e-15
1.99785e-15
1.79468e-15
1.62537e-15
1.48992e-15
1.35447e-15
1.21902e-15
1.11744e-15
1.01585e-15
9.14269e-16
8.46545e-16
7.4496e-16
6.77236e-16
6.43374e-16
5.75651e-16
5.07927e-16
4.74065e-16
4.40203e-16
3.7248e-16
3.38618e-16
3.04756e-16
3.04756e-16
2.70894e-16
2.37033e-16
2.03171e-16
2.03171e-16
1.69309e-16
1.69309e-16
1.35447e-16
1.35447e-16
1.35447e-16
1.01585e-16
1.01585e-16
1.01585e-16
6.77236e-17
6.77236e-17
6.77236e-17
6.77236e-17
6.77236e-17
6.77236e-17
3.38618e-17
3.38618e-17
3.38618e-17
3.38618e-17
3.38618e-17
3.38618e-17
3.38618e-17
3.38618e-17
3.38618e-17
3.38618e-17
3.38618e-17
0
0
0
0
0
0
0
0
0
0
0
0
0
0
0
0
0
0
0
0
0
0
0
0
0
0
0
0
0
0
0
0
0
0
0
0
0
0
0
0
0
0
0
0
0
0
0
0
0
0
0
0
0
0
0
0
0
0
0
0
0
0
0
0
0
0
0
0
0
0
0
0
0
0
0
0
0
0
0
0
0
0
0
0
0
0
0
0
0
0
0
0
0
0
0
0
0
0
0
0
0
0
0
0
0
0
0
0
0
0
0
0
0
0
0
0
0
0
0
0
0
0
0
0
0
0
0
0
0
0
0
0
0
0
0
0
0
0
0
0
0
0
0
0
0
0
0
0
0
0
0
0
0
0
0
0
0
0
0
0
0
0
0
0
0
0
0
0
0
0
0
0
0
0
0
0
0
0
0
0
0
0
0
0
0
0
0
0
0
0
0
0
0
0
0
0
0
0
0
0
0
0
0
0
0
0
0
0
0
0
0
0
0
0
0
0
0
0
0
0
0
0
0
0
0
0
0
0
0
0
0
0
0
0
0
0
0
0
0
0
0
0
0
0
0
0
0
0
0
0
0
0
0
0
0
0
0
0
0
0
0
0
0
0
0
0
0
0
0
0
0
0
0
0
0
0
0
0
0
0
0
0
0
0
0
0
0
0
0
0
0
0
0
0
0
0
0
0
0
0
0
0
0
0
0
0
0
0
0
0
0
0
0
0
0
0
0
0
0
0
0
0
0
)
;

boundaryField
{
    inandouthalf11
    {
        type            cyclic;
    }
    inandouthalf12
    {
        type            cyclic;
    }
    inandouthalf21
    {
        type            cyclic;
    }
    inandouthalf22
    {
        type            cyclic;
    }
    inandouthalf31
    {
        type            cyclic;
    }
    inandouthalf32
    {
        type            cyclic;
    }
    inandouthalf41
    {
        type            cyclic;
    }
    inandouthalf42
    {
        type            cyclic;
    }
    top
    {
        type            symmetryPlane;
    }
    walls
    {
        type            zeroGradient;
    }
    frontAndBackPlanes
    {
        type            empty;
    }
}


// ************************************************************************* //
